 VARIABLES = X,Y,Z,NODNUM
  ZONE, F=FEPOINT, I=        4104  J=        3075  ET=BRICK
    -0.328142D+00     0.944628D+00     0.000000D+00    1
    -0.426638D+00     0.200000D+01     0.000000D+00    2
     0.350000D+01     0.200000D+01     0.000000D+00    3
     0.350000D+01     0.686437D-03     0.000000D+00    4
     0.100000D+01     0.000000D+00     0.000000D+00    5
    -0.999972D+00     0.744448D-02     0.000000D+00    6
    -0.350000D+01     0.143348D-02     0.000000D+00    7
    -0.350000D+01     0.200000D+01     0.000000D+00    8
    -0.425908D+00    -0.200000D+01     0.000000D+00    9
    -0.310429D+00    -0.950597D+00     0.000000D+00   10
     0.350000D+01    -0.200000D+01     0.000000D+00   11
    -0.350000D+01    -0.200000D+01     0.000000D+00   12
     0.983924D+00     0.178590D+00     0.000000D+00   13
     0.934585D+00     0.355741D+00     0.000000D+00   14
     0.850518D+00     0.525947D+00     0.000000D+00   15
     0.733113D+00     0.680107D+00     0.000000D+00   16
     0.589940D+00     0.807447D+00     0.000000D+00   17
     0.426142D+00     0.904656D+00     0.000000D+00   18
     0.245938D+00     0.969286D+00     0.000000D+00   19
     0.597955D-01     0.998211D+00     0.000000D+00   20
    -0.130844D+00     0.991403D+00     0.000000D+00   21
    -0.390865D+00     0.109240D+01     0.000000D+00   22
    -0.389228D+00     0.126486D+01     0.000000D+00   23
    -0.397154D+00     0.144452D+01     0.000000D+00   24
    -0.409398D+00     0.162749D+01     0.000000D+00   25
    -0.418882D+00     0.181296D+01     0.000000D+00   26
    -0.206092D+00     0.200000D+01     0.000000D+00   27
     0.163600D-01     0.200000D+01     0.000000D+00   28
     0.239075D+00     0.200000D+01     0.000000D+00   29
     0.461356D+00     0.200000D+01     0.000000D+00   30
     0.681961D+00     0.200000D+01     0.000000D+00   31
     0.902304D+00     0.200000D+01     0.000000D+00   32
     0.112151D+01     0.200000D+01     0.000000D+00   33
     0.133953D+01     0.200000D+01     0.000000D+00   34
     0.155666D+01     0.200000D+01     0.000000D+00   35
     0.177326D+01     0.200000D+01     0.000000D+00   36
     0.198955D+01     0.200000D+01     0.000000D+00   37
     0.220568D+01     0.200000D+01     0.000000D+00   38
     0.242174D+01     0.200000D+01     0.000000D+00   39
     0.263775D+01     0.200000D+01     0.000000D+00   40
     0.285370D+01     0.200000D+01     0.000000D+00   41
     0.306950D+01     0.200000D+01     0.000000D+00   42
     0.328501D+01     0.200000D+01     0.000000D+00   43
     0.350000D+01     0.177665D+01     0.000000D+00   44
     0.350000D+01     0.155359D+01     0.000000D+00   45
     0.350000D+01     0.133104D+01     0.000000D+00   46
     0.350000D+01     0.110900D+01     0.000000D+00   47
     0.350000D+01     0.887486D+00     0.000000D+00   48
     0.350000D+01     0.666042D+00     0.000000D+00   49
     0.350000D+01     0.444316D+00     0.000000D+00   50
     0.350000D+01     0.222389D+00     0.000000D+00   51
     0.332463D+01     0.100015D-02     0.000000D+00   52
     0.314889D+01     0.142602D-02     0.000000D+00   53
     0.297308D+01     0.196783D-02     0.000000D+00   54
     0.279948D+01     0.205218D-02     0.000000D+00   55
     0.262363D+01     0.266965D-02     0.000000D+00   56
     0.245638D+01     0.186083D-02     0.000000D+00   57
     0.229199D+01     0.000000D+00     0.000000D+00   58
     0.211937D+01     0.000000D+00     0.000000D+00   59
     0.194133D+01     0.100872D-02     0.000000D+00   60
     0.177025D+01     0.918091D-03     0.000000D+00   61
     0.159321D+01     0.172375D-02     0.000000D+00   62
     0.141388D+01     0.316074D-02     0.000000D+00   63
     0.125788D+01     0.243051D-02     0.000000D+00   64
     0.112398D+01    -0.617274D-04     0.000000D+00   65
    -0.329582D+01     0.200000D+01     0.000000D+00   66
    -0.309161D+01     0.200000D+01     0.000000D+00   67
    -0.288738D+01     0.200000D+01     0.000000D+00   68
    -0.268316D+01     0.200000D+01     0.000000D+00   69
    -0.247896D+01     0.200000D+01     0.000000D+00   70
    -0.227476D+01     0.200000D+01     0.000000D+00   71
    -0.207056D+01     0.200000D+01     0.000000D+00   72
    -0.186638D+01     0.200000D+01     0.000000D+00   73
    -0.166219D+01     0.200000D+01     0.000000D+00   74
    -0.145800D+01     0.200000D+01     0.000000D+00   75
    -0.125394D+01     0.200000D+01     0.000000D+00   76
    -0.105052D+01     0.200000D+01     0.000000D+00   77
    -0.848698D+00     0.200000D+01     0.000000D+00   78
    -0.641363D+00     0.200000D+01     0.000000D+00   79
    -0.527365D+00     0.849639D+00     0.000000D+00   80
    -0.700618D+00     0.713537D+00     0.000000D+00   81
    -0.834981D+00     0.550278D+00     0.000000D+00   82
    -0.928552D+00     0.371202D+00     0.000000D+00   83
    -0.982204D+00     0.187817D+00     0.000000D+00   84
    -0.113260D+01     0.180750D-02     0.000000D+00   85
    -0.127492D+01     0.226867D-02     0.000000D+00   86
    -0.143230D+01     0.209889D-02     0.000000D+00   87
    -0.159847D+01     0.185670D-02     0.000000D+00   88
    -0.176894D+01     0.165855D-02     0.000000D+00   89
    -0.194106D+01     0.149624D-02     0.000000D+00   90
    -0.211383D+01     0.133687D-02     0.000000D+00   91
    -0.228689D+01     0.116985D-02     0.000000D+00   92
    -0.246007D+01     0.999415D-03     0.000000D+00   93
    -0.262839D+01     0.250945D-02     0.000000D+00   94
    -0.279740D+01     0.316536D-02     0.000000D+00   95
    -0.297150D+01     0.272205D-02     0.000000D+00   96
    -0.314705D+01     0.213589D-02     0.000000D+00   97
    -0.332324D+01     0.177280D-02     0.000000D+00   98
    -0.350000D+01     0.202645D+00     0.000000D+00   99
    -0.350000D+01     0.403759D+00     0.000000D+00  100
    -0.350000D+01     0.604394D+00     0.000000D+00  101
    -0.350000D+01     0.804468D+00     0.000000D+00  102
    -0.350000D+01     0.100406D+01     0.000000D+00  103
    -0.350000D+01     0.120337D+01     0.000000D+00  104
    -0.350000D+01     0.140256D+01     0.000000D+00  105
    -0.350000D+01     0.160173D+01     0.000000D+00  106
    -0.350000D+01     0.180089D+01     0.000000D+00  107
     0.329366D+01    -0.200000D+01     0.000000D+00  108
     0.308764D+01    -0.200000D+01     0.000000D+00  109
     0.288181D+01    -0.200000D+01     0.000000D+00  110
     0.267610D+01    -0.200000D+01     0.000000D+00  111
     0.247046D+01    -0.200000D+01     0.000000D+00  112
     0.226486D+01    -0.200000D+01     0.000000D+00  113
     0.205927D+01    -0.200000D+01     0.000000D+00  114
     0.185370D+01    -0.200000D+01     0.000000D+00  115
     0.164813D+01    -0.200000D+01     0.000000D+00  116
     0.144265D+01    -0.200000D+01     0.000000D+00  117
     0.123733D+01    -0.200000D+01     0.000000D+00  118
     0.103193D+01    -0.200000D+01     0.000000D+00  119
     0.825770D+00    -0.200000D+01     0.000000D+00  120
     0.617745D+00    -0.200000D+01     0.000000D+00  121
     0.410188D+00    -0.200000D+01     0.000000D+00  122
     0.201676D+00    -0.200000D+01     0.000000D+00  123
    -0.103793D-01    -0.200000D+01     0.000000D+00  124
    -0.219857D+00    -0.200000D+01     0.000000D+00  125
    -0.415358D+00    -0.178390D+01     0.000000D+00  126
    -0.398889D+00    -0.156869D+01     0.000000D+00  127
    -0.388044D+00    -0.135500D+01     0.000000D+00  128
    -0.378808D+00    -0.114531D+01     0.000000D+00  129
    -0.134058D+00    -0.990974D+00     0.000000D+00  130
     0.406207D-01    -0.999175D+00     0.000000D+00  131
     0.216300D+00    -0.976327D+00     0.000000D+00  132
     0.395100D+00    -0.918638D+00     0.000000D+00  133
     0.573551D+00    -0.819170D+00     0.000000D+00  134
     0.732709D+00    -0.680542D+00     0.000000D+00  135
     0.854825D+00    -0.518916D+00     0.000000D+00  136
     0.937703D+00    -0.347439D+00     0.000000D+00  137
     0.984712D+00    -0.174193D+00     0.000000D+00  138
     0.350000D+01    -0.220225D+00     0.000000D+00  139
     0.350000D+01    -0.440466D+00     0.000000D+00  140
     0.350000D+01    -0.660410D+00     0.000000D+00  141
     0.350000D+01    -0.880666D+00     0.000000D+00  142
     0.350000D+01    -0.110188D+01     0.000000D+00  143
     0.350000D+01    -0.132454D+01     0.000000D+00  144
     0.350000D+01    -0.154869D+01     0.000000D+00  145
     0.350000D+01    -0.177401D+01     0.000000D+00  146
    -0.986767D+00    -0.162143D+00     0.000000D+00  147
    -0.945620D+00    -0.325272D+00     0.000000D+00  148
    -0.876506D+00    -0.481391D+00     0.000000D+00  149
    -0.778099D+00    -0.628142D+00     0.000000D+00  150
    -0.649260D+00    -0.760567D+00     0.000000D+00  151
    -0.488176D+00    -0.872745D+00     0.000000D+00  152
    -0.628961D+00    -0.200000D+01     0.000000D+00  153
    -0.831817D+00    -0.200000D+01     0.000000D+00  154
    -0.103532D+01    -0.200000D+01     0.000000D+00  155
    -0.123950D+01    -0.200000D+01     0.000000D+00  156
    -0.144422D+01    -0.200000D+01     0.000000D+00  157
    -0.164930D+01    -0.200000D+01     0.000000D+00  158
    -0.185461D+01    -0.200000D+01     0.000000D+00  159
    -0.206006D+01    -0.200000D+01     0.000000D+00  160
    -0.226558D+01    -0.200000D+01     0.000000D+00  161
    -0.247115D+01    -0.200000D+01     0.000000D+00  162
    -0.267676D+01    -0.200000D+01     0.000000D+00  163
    -0.288244D+01    -0.200000D+01     0.000000D+00  164
    -0.308823D+01    -0.200000D+01     0.000000D+00  165
    -0.329412D+01    -0.200000D+01     0.000000D+00  166
    -0.350000D+01    -0.179757D+01     0.000000D+00  167
    -0.350000D+01    -0.159555D+01     0.000000D+00  168
    -0.350000D+01    -0.139435D+01     0.000000D+00  169
    -0.350000D+01    -0.119412D+01     0.000000D+00  170
    -0.350000D+01    -0.995010D+00     0.000000D+00  171
    -0.350000D+01    -0.796459D+00     0.000000D+00  172
    -0.350000D+01    -0.597874D+00     0.000000D+00  173
    -0.350000D+01    -0.398903D+00     0.000000D+00  174
    -0.350000D+01    -0.199174D+00     0.000000D+00  175
     0.786993D+00     0.107124D+01     0.000000D+00  176
    -0.163621D+00     0.127869D+01     0.000000D+00  177
     0.572351D-01     0.127205D+01     0.000000D+00  178
     0.278915D+00     0.124128D+01     0.000000D+00  179
     0.513646D+00     0.118072D+01     0.000000D+00  180
     0.677371D+00     0.927765D+00     0.000000D+00  181
     0.691860D+00     0.178104D+01     0.000000D+00  182
     0.712703D+00     0.156089D+01     0.000000D+00  183
     0.744757D+00     0.133247D+01     0.000000D+00  184
     0.329747D+01     0.110865D+01     0.000000D+00  185
     0.309510D+01     0.110802D+01     0.000000D+00  186
     0.289275D+01     0.110716D+01     0.000000D+00  187
     0.269041D+01     0.110614D+01     0.000000D+00  188
     0.248806D+01     0.110503D+01     0.000000D+00  189
     0.228570D+01     0.110389D+01     0.000000D+00  190
     0.208331D+01     0.110277D+01     0.000000D+00  191
     0.188080D+01     0.110167D+01     0.000000D+00  192
     0.167791D+01     0.110038D+01     0.000000D+00  193
     0.147367D+01     0.109816D+01     0.000000D+00  194
     0.126528D+01     0.109386D+01     0.000000D+00  195
     0.104508D+01     0.108596D+01     0.000000D+00  196
     0.122961D+01     0.205613D+00     0.000000D+00  197
     0.117180D+01     0.410124D+00     0.000000D+00  198
     0.108460D+01     0.616473D+00     0.000000D+00  199
     0.963334D+00     0.829867D+00     0.000000D+00  200
     0.487829D+00     0.103355D+01     0.000000D+00  201
     0.274104D+00     0.109815D+01     0.000000D+00  202
     0.574997D-01     0.113015D+01     0.000000D+00  203
    -0.164699D+00     0.112812D+01     0.000000D+00  204
    -0.175318D+00     0.144636D+01     0.000000D+00  205
    -0.188633D+00     0.162560D+01     0.000000D+00  206
    -0.198286D+00     0.181139D+01     0.000000D+00  207
     0.464195D-01     0.143766D+01     0.000000D+00  208
     0.335864D-01     0.161837D+01     0.000000D+00  209
     0.238714D-01     0.180744D+01     0.000000D+00  210
     0.270690D+00     0.141478D+01     0.000000D+00  211
     0.257661D+00     0.160388D+01     0.000000D+00  212
     0.247080D+00     0.180048D+01     0.000000D+00  213
     0.502909D+00     0.137758D+01     0.000000D+00  214
     0.485246D+00     0.158323D+01     0.000000D+00  215
     0.471386D+00     0.179119D+01     0.000000D+00  216
     0.914356D+00     0.177536D+01     0.000000D+00  217
     0.113435D+01     0.177276D+01     0.000000D+00  218
     0.135213D+01     0.177191D+01     0.000000D+00  219
     0.156842D+01     0.177191D+01     0.000000D+00  220
     0.178388D+01     0.177231D+01     0.000000D+00  221
     0.199890D+01     0.177289D+01     0.000000D+00  222
     0.221372D+01     0.177356D+01     0.000000D+00  223
     0.242844D+01     0.177426D+01     0.000000D+00  224
     0.264311D+01     0.177496D+01     0.000000D+00  225
     0.285771D+01     0.177560D+01     0.000000D+00  226
     0.307218D+01     0.177613D+01     0.000000D+00  227
     0.328636D+01     0.177650D+01     0.000000D+00  228
     0.940164D+00     0.155048D+01     0.000000D+00  229
     0.116182D+01     0.154660D+01     0.000000D+00  230
     0.137888D+01     0.154565D+01     0.000000D+00  231
     0.159322D+01     0.154589D+01     0.000000D+00  232
     0.180617D+01     0.154663D+01     0.000000D+00  233
     0.201848D+01     0.154761D+01     0.000000D+00  234
     0.223050D+01     0.154870D+01     0.000000D+00  235
     0.244240D+01     0.154983D+01     0.000000D+00  236
     0.265424D+01     0.155094D+01     0.000000D+00  237
     0.286602D+01     0.155196D+01     0.000000D+00  238
     0.307768D+01     0.155279D+01     0.000000D+00  239
     0.328909D+01     0.155338D+01     0.000000D+00  240
     0.982627D+00     0.132203D+01     0.000000D+00  241
     0.120616D+01     0.132057D+01     0.000000D+00  242
     0.142106D+01     0.132130D+01     0.000000D+00  243
     0.163171D+01     0.132239D+01     0.000000D+00  244
     0.184047D+01     0.132350D+01     0.000000D+00  245
     0.204844D+01     0.132464D+01     0.000000D+00  246
     0.225610D+01     0.132583D+01     0.000000D+00  247
     0.246363D+01     0.132705D+01     0.000000D+00  248
     0.267111D+01     0.132823D+01     0.000000D+00  249
     0.287855D+01     0.132930D+01     0.000000D+00  250
     0.308591D+01     0.133018D+01     0.000000D+00  251
     0.329312D+01     0.133081D+01     0.000000D+00  252
     0.330424D+01     0.887295D+00     0.000000D+00  253
     0.331135D+01     0.665992D+00     0.000000D+00  254
     0.331753D+01     0.444370D+00     0.000000D+00  255
     0.332182D+01     0.222618D+00     0.000000D+00  256
     0.310860D+01     0.886935D+00     0.000000D+00  257
     0.312255D+01     0.665877D+00     0.000000D+00  258
     0.313466D+01     0.444416D+00     0.000000D+00  259
     0.314312D+01     0.222841D+00     0.000000D+00  260
     0.291296D+01     0.886435D+00     0.000000D+00  261
     0.293364D+01     0.665697D+00     0.000000D+00  262
     0.295156D+01     0.444442D+00     0.000000D+00  263
     0.296418D+01     0.223087D+00     0.000000D+00  264
     0.271733D+01     0.885834D+00     0.000000D+00  265
     0.274466D+01     0.665462D+00     0.000000D+00  266
     0.276833D+01     0.444449D+00     0.000000D+00  267
     0.278623D+01     0.223096D+00     0.000000D+00  268
     0.252168D+01     0.885171D+00     0.000000D+00  269
     0.255564D+01     0.665190D+00     0.000000D+00  270
     0.258557D+01     0.444316D+00     0.000000D+00  271
     0.260725D+01     0.223329D+00     0.000000D+00  272
     0.232603D+01     0.884479D+00     0.000000D+00  273
     0.236660D+01     0.664899D+00     0.000000D+00  274
     0.240209D+01     0.444325D+00     0.000000D+00  275
     0.243082D+01     0.223109D+00     0.000000D+00  276
     0.213036D+01     0.883784D+00     0.000000D+00  277
     0.217756D+01     0.664588D+00     0.000000D+00  278
     0.221928D+01     0.444160D+00     0.000000D+00  279
     0.225560D+01     0.222521D+00     0.000000D+00  280
     0.193470D+01     0.883003D+00     0.000000D+00  281
     0.198858D+01     0.664098D+00     0.000000D+00  282
     0.203640D+01     0.443817D+00     0.000000D+00  283
     0.207858D+01     0.222186D+00     0.000000D+00  284
     0.173900D+01     0.881612D+00     0.000000D+00  285
     0.179985D+01     0.662764D+00     0.000000D+00  286
     0.185375D+01     0.442705D+00     0.000000D+00  287
     0.189975D+01     0.221787D+00     0.000000D+00  288
     0.154309D+01     0.878307D+00     0.000000D+00  289
     0.161185D+01     0.659208D+00     0.000000D+00  290
     0.167201D+01     0.439821D+00     0.000000D+00  291
     0.172335D+01     0.220178D+00     0.000000D+00  292
     0.134677D+01     0.871009D+00     0.000000D+00  293
     0.142616D+01     0.651533D+00     0.000000D+00  294
     0.149394D+01     0.433813D+00     0.000000D+00  295
     0.154847D+01     0.217240D+00     0.000000D+00  296
     0.115103D+01     0.856658D+00     0.000000D+00  297
     0.124699D+01     0.637594D+00     0.000000D+00  298
     0.132403D+01     0.423694D+00     0.000000D+00  299
     0.137900D+01     0.212427D+00     0.000000D+00  300
     0.110055D+01     0.194107D+00     0.000000D+00  301
     0.104477D+01     0.389821D+00     0.000000D+00  302
     0.954781D+00     0.584441D+00     0.000000D+00  303
     0.832056D+00     0.773553D+00     0.000000D+00  304
    -0.652843D+00     0.101088D+01     0.000000D+00  305
    -0.628417D+00     0.123585D+01     0.000000D+00  306
    -0.623013D+00     0.143397D+01     0.000000D+00  307
    -0.627152D+00     0.162401D+01     0.000000D+00  308
    -0.632713D+00     0.181196D+01     0.000000D+00  309
    -0.110504D+01     0.201329D+00     0.000000D+00  310
    -0.104351D+01     0.402117D+00     0.000000D+00  311
    -0.947402D+00     0.602078D+00     0.000000D+00  312
    -0.818509D+00     0.800060D+00     0.000000D+00  313
    -0.330035D+01     0.100479D+01     0.000000D+00  314
    -0.310115D+01     0.100618D+01     0.000000D+00  315
    -0.290226D+01     0.100808D+01     0.000000D+00  316
    -0.270355D+01     0.101034D+01     0.000000D+00  317
    -0.250496D+01     0.101280D+01     0.000000D+00  318
    -0.230644D+01     0.101534D+01     0.000000D+00  319
    -0.210801D+01     0.101789D+01     0.000000D+00  320
    -0.190973D+01     0.102037D+01     0.000000D+00  321
    -0.170466D+01     0.102382D+01     0.000000D+00  322
    -0.150623D+01     0.102600D+01     0.000000D+00  323
    -0.130781D+01     0.102747D+01     0.000000D+00  324
    -0.111269D+01     0.102608D+01     0.000000D+00  325
    -0.903119D+00     0.102167D+01     0.000000D+00  326
    -0.123815D+01     0.209058D+00     0.000000D+00  327
    -0.139129D+01     0.212636D+00     0.000000D+00  328
    -0.155630D+01     0.213803D+00     0.000000D+00  329
    -0.172776D+01     0.213637D+00     0.000000D+00  330
    -0.190245D+01     0.212771D+00     0.000000D+00  331
    -0.207869D+01     0.211550D+00     0.000000D+00  332
    -0.225566D+01     0.210158D+00     0.000000D+00  333
    -0.243266D+01     0.208793D+00     0.000000D+00  334
    -0.260864D+01     0.207797D+00     0.000000D+00  335
    -0.278473D+01     0.206651D+00     0.000000D+00  336
    -0.296231D+01     0.205270D+00     0.000000D+00  337
    -0.314083D+01     0.204023D+00     0.000000D+00  338
    -0.332007D+01     0.203200D+00     0.000000D+00  339
    -0.117707D+01     0.413622D+00     0.000000D+00  340
    -0.133295D+01     0.419535D+00     0.000000D+00  341
    -0.150152D+01     0.421731D+00     0.000000D+00  342
    -0.167702D+01     0.421702D+00     0.000000D+00  343
    -0.185617D+01     0.420443D+00     0.000000D+00  344
    -0.203720D+01     0.418546D+00     0.000000D+00  345
    -0.221914D+01     0.416337D+00     0.000000D+00  346
    -0.240138D+01     0.414034D+00     0.000000D+00  347
    -0.258350D+01     0.411786D+00     0.000000D+00  348
    -0.276573D+01     0.409554D+00     0.000000D+00  349
    -0.294847D+01     0.407419D+00     0.000000D+00  350
    -0.313177D+01     0.405633D+00     0.000000D+00  351
    -0.331562D+01     0.404429D+00     0.000000D+00  352
    -0.109257D+01     0.618458D+00     0.000000D+00  353
    -0.126084D+01     0.623319D+00     0.000000D+00  354
    -0.143814D+01     0.625428D+00     0.000000D+00  355
    -0.162045D+01     0.625330D+00     0.000000D+00  356
    -0.180560D+01     0.623879D+00     0.000000D+00  357
    -0.199234D+01     0.621688D+00     0.000000D+00  358
    -0.217993D+01     0.619123D+00     0.000000D+00  359
    -0.236788D+01     0.616402D+00     0.000000D+00  360
    -0.255596D+01     0.613658D+00     0.000000D+00  361
    -0.274415D+01     0.610982D+00     0.000000D+00  362
    -0.293260D+01     0.608526D+00     0.000000D+00  363
    -0.312139D+01     0.606509D+00     0.000000D+00  364
    -0.331055D+01     0.605133D+00     0.000000D+00  365
    -0.998765D+00     0.816656D+00     0.000000D+00  366
    -0.118246D+01     0.825492D+00     0.000000D+00  367
    -0.137245D+01     0.826516D+00     0.000000D+00  368
    -0.156317D+01     0.825908D+00     0.000000D+00  369
    -0.175501D+01     0.824221D+00     0.000000D+00  370
    -0.194932D+01     0.821686D+00     0.000000D+00  371
    -0.214282D+01     0.819054D+00     0.000000D+00  372
    -0.233628D+01     0.816335D+00     0.000000D+00  373
    -0.252980D+01     0.813608D+00     0.000000D+00  374
    -0.272342D+01     0.810976D+00     0.000000D+00  375
    -0.291721D+01     0.808584D+00     0.000000D+00  376
    -0.311123D+01     0.806618D+00     0.000000D+00  377
    -0.330553D+01     0.805252D+00     0.000000D+00  378
    -0.329737D+01     0.120396D+01     0.000000D+00  379
    -0.329601D+01     0.140299D+01     0.000000D+00  380
    -0.329567D+01     0.160200D+01     0.000000D+00  381
    -0.329572D+01     0.180102D+01     0.000000D+00  382
    -0.309523D+01     0.120506D+01     0.000000D+00  383
    -0.309239D+01     0.140378D+01     0.000000D+00  384
    -0.309153D+01     0.160251D+01     0.000000D+00  385
    -0.309149D+01     0.180126D+01     0.000000D+00  386
    -0.289338D+01     0.120655D+01     0.000000D+00  387
    -0.288900D+01     0.140485D+01     0.000000D+00  388
    -0.288752D+01     0.160319D+01     0.000000D+00  389
    -0.288731D+01     0.180159D+01     0.000000D+00  390
    -0.269171D+01     0.120830D+01     0.000000D+00  391
    -0.268574D+01     0.140611D+01     0.000000D+00  392
    -0.268360D+01     0.160399D+01     0.000000D+00  393
    -0.268318D+01     0.180198D+01     0.000000D+00  394
    -0.249014D+01     0.121022D+01     0.000000D+00  395
    -0.248256D+01     0.140749D+01     0.000000D+00  396
    -0.247973D+01     0.160488D+01     0.000000D+00  397
    -0.247907D+01     0.180242D+01     0.000000D+00  398
    -0.228863D+01     0.121222D+01     0.000000D+00  399
    -0.227943D+01     0.140894D+01     0.000000D+00  400
    -0.227589D+01     0.160582D+01     0.000000D+00  401
    -0.227499D+01     0.180287D+01     0.000000D+00  402
    -0.208717D+01     0.121424D+01     0.000000D+00  403
    -0.207634D+01     0.141041D+01     0.000000D+00  404
    -0.207208D+01     0.160677D+01     0.000000D+00  405
    -0.207092D+01     0.180335D+01     0.000000D+00  406
    -0.188582D+01     0.121624D+01     0.000000D+00  407
    -0.187330D+01     0.141190D+01     0.000000D+00  408
    -0.186829D+01     0.160775D+01     0.000000D+00  409
    -0.186686D+01     0.180384D+01     0.000000D+00  410
    -0.168285D+01     0.121847D+01     0.000000D+00  411
    -0.166989D+01     0.141349D+01     0.000000D+00  412
    -0.166442D+01     0.160885D+01     0.000000D+00  413
    -0.166278D+01     0.180442D+01     0.000000D+00  414
    -0.148102D+01     0.122052D+01     0.000000D+00  415
    -0.146653D+01     0.141534D+01     0.000000D+00  416
    -0.146043D+01     0.161032D+01     0.000000D+00  417
    -0.145862D+01     0.180527D+01     0.000000D+00  418
    -0.127335D+01     0.122262D+01     0.000000D+00  419
    -0.126098D+01     0.141799D+01     0.000000D+00  420
    -0.125549D+01     0.161272D+01     0.000000D+00  421
    -0.125419D+01     0.180671D+01     0.000000D+00  422
    -0.106912D+01     0.122551D+01     0.000000D+00  423
    -0.105431D+01     0.142196D+01     0.000000D+00  424
    -0.104948D+01     0.161616D+01     0.000000D+00  425
    -0.104941D+01     0.180843D+01     0.000000D+00  426
    -0.860134D+00     0.122778D+01     0.000000D+00  427
    -0.844215D+00     0.142621D+01     0.000000D+00  428
    -0.841076D+00     0.161931D+01     0.000000D+00  429
    -0.842975D+00     0.180992D+01     0.000000D+00  430
     0.701657D+00    -0.101311D+01     0.000000D+00  431
    -0.166695D+00    -0.117591D+01     0.000000D+00  432
     0.371220D-01    -0.117988D+01     0.000000D+00  433
     0.241463D+00    -0.115712D+01     0.000000D+00  434
     0.456336D+00    -0.110388D+01     0.000000D+00  435
     0.669393D+00    -0.127952D+01     0.000000D+00  436
     0.644297D+00    -0.152306D+01     0.000000D+00  437
     0.627780D+00    -0.176209D+01     0.000000D+00  438
     0.111211D+01    -0.191578D+00     0.000000D+00  439
     0.106323D+01    -0.382822D+00     0.000000D+00  440
     0.977493D+00    -0.578961D+00     0.000000D+00  441
     0.856987D+00    -0.783617D+00     0.000000D+00  442
     0.330371D+01    -0.109991D+01     0.000000D+00  443
     0.310775D+01    -0.109632D+01     0.000000D+00  444
     0.291201D+01    -0.109163D+01     0.000000D+00  445
     0.271639D+01    -0.108631D+01     0.000000D+00  446
     0.252085D+01    -0.108068D+01     0.000000D+00  447
     0.232535D+01    -0.107491D+01     0.000000D+00  448
     0.212988D+01    -0.106907D+01     0.000000D+00  449
     0.193444D+01    -0.106317D+01     0.000000D+00  450
     0.173921D+01    -0.105723D+01     0.000000D+00  451
     0.154430D+01    -0.105131D+01     0.000000D+00  452
     0.134935D+01    -0.104558D+01     0.000000D+00  453
     0.115200D+01    -0.103975D+01     0.000000D+00  454
     0.944594D+00    -0.103191D+01     0.000000D+00  455
     0.419344D+00    -0.176980D+01     0.000000D+00  456
     0.210813D+00    -0.177780D+01     0.000000D+00  457
     0.125231D-02    -0.178265D+01     0.000000D+00  458
    -0.206173D+00    -0.178453D+01     0.000000D+00  459
     0.433752D+00    -0.154198D+01     0.000000D+00  460
     0.224423D+00    -0.155955D+01     0.000000D+00  461
     0.166478D-01    -0.156984D+01     0.000000D+00  462
    -0.190577D+00    -0.157256D+01     0.000000D+00  463
     0.449143D+00    -0.131869D+01     0.000000D+00  464
     0.236668D+00    -0.135023D+01     0.000000D+00  465
     0.291356D-01    -0.136678D+01     0.000000D+00  466
    -0.179045D+00    -0.136756D+01     0.000000D+00  467
     0.124777D+01    -0.197727D+00     0.000000D+00  468
     0.140270D+01    -0.202094D+00     0.000000D+00  469
     0.157172D+01    -0.205482D+00     0.000000D+00  470
     0.174556D+01    -0.207981D+00     0.000000D+00  471
     0.191972D+01    -0.209754D+00     0.000000D+00  472
     0.210220D+01    -0.212454D+00     0.000000D+00  473
     0.228587D+01    -0.214825D+00     0.000000D+00  474
     0.244849D+01    -0.214260D+00     0.000000D+00  475
     0.261875D+01    -0.214785D+00     0.000000D+00  476
     0.279348D+01    -0.216007D+00     0.000000D+00  477
     0.296902D+01    -0.217276D+00     0.000000D+00  478
     0.314551D+01    -0.218538D+00     0.000000D+00  479
     0.332249D+01    -0.219423D+00     0.000000D+00  480
     0.120231D+01    -0.395921D+00     0.000000D+00  481
     0.136515D+01    -0.405843D+00     0.000000D+00  482
     0.153550D+01    -0.411803D+00     0.000000D+00  483
     0.171062D+01    -0.415992D+00     0.000000D+00  484
     0.188807D+01    -0.419367D+00     0.000000D+00  485
     0.206567D+01    -0.422342D+00     0.000000D+00  486
     0.224643D+01    -0.425407D+00     0.000000D+00  487
     0.242287D+01    -0.427761D+00     0.000000D+00  488
     0.260015D+01    -0.430189D+00     0.000000D+00  489
     0.277889D+01    -0.432805D+00     0.000000D+00  490
     0.295832D+01    -0.435395D+00     0.000000D+00  491
     0.313833D+01    -0.437681D+00     0.000000D+00  492
     0.331886D+01    -0.439246D+00     0.000000D+00  493
     0.112909D+01    -0.597160D+00     0.000000D+00  494
     0.129831D+01    -0.609337D+00     0.000000D+00  495
     0.147513D+01    -0.617413D+00     0.000000D+00  496
     0.165585D+01    -0.623382D+00     0.000000D+00  497
     0.183861D+01    -0.628361D+00     0.000000D+00  498
     0.202232D+01    -0.632893D+00     0.000000D+00  499
     0.220699D+01    -0.637256D+00     0.000000D+00  500
     0.239086D+01    -0.641374D+00     0.000000D+00  501
     0.257476D+01    -0.645428D+00     0.000000D+00  502
     0.275907D+01    -0.649461D+00     0.000000D+00  503
     0.294374D+01    -0.653299D+00     0.000000D+00  504
     0.312876D+01    -0.656585D+00     0.000000D+00  505
     0.331417D+01    -0.658856D+00     0.000000D+00  506
     0.103836D+01    -0.807629D+00     0.000000D+00  507
     0.122460D+01    -0.820707D+00     0.000000D+00  508
     0.141174D+01    -0.829109D+00     0.000000D+00  509
     0.159973D+01    -0.835636D+00     0.000000D+00  510
     0.178858D+01    -0.841419D+00     0.000000D+00  511
     0.197807D+01    -0.846882D+00     0.000000D+00  512
     0.216802D+01    -0.852187D+00     0.000000D+00  513
     0.235789D+01    -0.857365D+00     0.000000D+00  514
     0.254777D+01    -0.862458D+00     0.000000D+00  515
     0.273778D+01    -0.867428D+00     0.000000D+00  516
     0.292796D+01    -0.872077D+00     0.000000D+00  517
     0.311838D+01    -0.876042D+00     0.000000D+00  518
     0.330906D+01    -0.878868D+00     0.000000D+00  519
     0.329951D+01    -0.132270D+01     0.000000D+00  520
     0.329656D+01    -0.154735D+01     0.000000D+00  521
     0.329478D+01    -0.177333D+01     0.000000D+00  522
     0.309938D+01    -0.131947D+01     0.000000D+00  523
     0.309345D+01    -0.154500D+01     0.000000D+00  524